  273
Geometry Step: 431
    O      2.10186380      5.27275725      5.51645954
    H      2.81568448      6.52880160      4.59111993
    O      3.28494800      4.51176267      5.07098143
    H      2.90176639      3.59849041      4.91970517
    H      2.15277458      5.17393724      6.51043975
    C      1.10372830     13.50113242      3.90354681
    C      1.24967308     14.57373976      4.78811581
    C      2.06450289     13.25890009      2.92006412
    C      3.18144267     14.09557214      2.81755890
    C      3.34766104     15.16695949      3.69481670
    C      2.38125018     15.40026273      4.68286253
    O      2.55454723     16.44995639      5.54215002
    H      1.94311804     16.39277356      6.30062718
    H      0.49337417     14.77674046      5.54492059
    H      0.23818153     12.84591534      3.99428100
    H      1.94347461     12.42295094      2.23477876
    H      3.93390084     13.90660083      2.05368119
    H      4.21685640     15.81563211      3.62236968
    C     11.41183988     12.04306783      4.48938567
    C     11.09881284     11.26698923      5.60703071
    C     10.83677519     13.30457460      4.31949942
    C      9.93963417     13.79383562      5.27458472
    C      9.62867519     13.03990367      6.40620566
    C     10.21096181     11.77498961      6.56983047
    O      9.90752459     11.04035306      7.69352945
    H     10.12542426     10.09471111      7.54630852
    H     11.54256933     10.28250061      5.73815573
    H     12.10768590     11.65917579      3.74611164
    H     11.08494212     13.90328128      3.44613223
    H      9.47107156     14.76569600      5.13080142
    H      8.93907621     13.42002828      7.15704835
    C      3.33234504     11.18840352     -1.99000028
    C      4.31940790     10.71737692     -2.85775610
    C      3.68115656     11.84754360     -0.80829970
    C      5.02855676     12.04308819     -0.49306671
    C      6.02952215     11.56854047     -1.34177669
    C      5.66879200     10.90465793     -2.52431123
    O      6.63899617     10.43294401     -3.37384803
    H      7.51714428     10.47506804     -2.93763889
    H      4.05257763     10.20455788     -3.77901480
    H      2.28273806     11.03804902     -2.23821506
    H      2.90676988     12.20843539     -0.13497114
    H      5.30587965     12.57578716      0.41458329
    H      7.07914247     11.71132406     -1.09221644
    C     -1.11638090      4.98937996      1.50780599
    C      0.18899769      4.80812439      1.96715471
    C     -2.10113486      4.02878254      1.76043926
    C     -1.77715009      2.87579226      2.48387429
    C     -0.47823945      2.67433690      2.94758859
    C      0.50775548      3.63947219      2.68474127
    O      1.77061621      3.41417627      3.13215125
    H      2.37495522      4.12926504      2.85447969
    H      0.95234508      5.55806250      1.76891857
    H     -1.36967777      5.88933507      0.94857632
    H     -3.11750453      4.18050301      1.40134480
    H     -2.54289160      2.12900094      2.68871888
    H     -0.21191740      1.77892670      3.50356799
    C      6.62213238      4.61711171     -2.74719299
    C      6.50870204      3.92186983     -1.54153530
    C      5.70238332      5.61711510     -3.07633994
    C      4.66536105      5.92809696     -2.19358410
    C      4.53271551      5.24004119     -0.98657638
    C      5.45888199      4.23492904     -0.66617872
    O      5.34408104      3.54792530      0.51500241
    H      4.63536444      3.94332563      1.06078223
    H      7.22681104      3.15135932     -1.27219814
    H      7.43458447      4.37936954     -3.43179640
    H      5.79335353      6.15321356     -4.01857684
    H      3.95248223      6.71070418     -2.44403572
    H      3.72817319      5.47689592     -0.29475024
    C     11.00094294      4.75156291      9.79861078
    C     11.40273787      3.60582541     10.48216813
    C     10.36590403      5.79842504     10.47829270
    C     10.13320162      5.69541909     11.85206679
    C     10.54016815      4.55984326     12.55516522
    C     11.17787472      3.51269020     11.86543576
    O     11.58558049      2.39515204     12.51927617
    H     11.44171839      2.48328838     13.47482344
    H     11.89076466      2.78622497      9.95796238
    H     11.19119519      4.83383111      8.73076096
    H     10.06034935      6.69149237      9.93874395
    H      9.63318925      6.50376582     12.38282540
    H     10.36467552      4.48238835     13.62700051
    C      6.03241221     11.15993426      5.62772662
    C      7.03265887     10.18860181      5.56580627
    C      5.33586718     11.53965147      4.47717168
    C      5.64970823     10.94603060      3.25097350
    C      6.65384339      9.97957270      3.16505079
    C      7.33975015      9.60471822      4.33041686
    O      8.33090984      8.64884349      4.27148606
    H      8.47612735      8.38034872      3.34707839
    H      7.56620295      9.88553088      6.46197324
    H      5.79538903     11.62251590      6.58387362
    H      4.55384124     12.29245759      4.53603513
    H      5.11499996     11.24163980      2.34988630
    H      6.90053167      9.51897140      2.21086367
    C      8.98225502      4.08977828      6.57124278
    C      8.67216716      4.13898950      5.21299502
    C      8.50234198      3.04692626      7.37260921
    C      7.71268145      2.04294164      6.80583911
    C      7.38707133      2.07785818      5.44699842
    C      7.86486642      3.13534350      4.65040896
    O      7.55875470      3.21905737      3.33117397
    H      7.02863817      2.45164279      3.03582350
    H      9.04239979      4.94491460      4.58379151
    H      9.60284566      4.87156875      7.00452917
    H      8.74379700      3.01934617      8.43396669
    H      7.34851876      1.22517547      7.42438065
    H      6.76170440      1.30296184      5.00876110
    C     -0.22961361      5.66777235     -3.78135199
    C      0.31065084      4.87925963     -4.79841844
    C      0.43604318      6.81873982     -3.34997455
    C      1.65008675      7.18378536     -3.93757602
    C      2.20506877      6.40887462     -4.95688431
    C      1.53167514      5.25437970     -5.37944498
    O      2.08183143      4.50654838     -6.38845594
    H      1.69216269      3.60825855     -6.41268080
    H     -0.20609404      3.98288253     -5.13844547
    H     -1.17893288      5.38460238     -3.33216786
    H      0.01091961      7.42761315     -2.55603508
    H      2.16935275      8.07787566     -3.59532316
    H      3.15492557      6.67281148     -5.41619296
    C      0.54637507      2.74465060     -1.61806786
    C      0.07813313      1.81153113     -2.54311171
    C      1.20847419      2.32573741     -0.46103723
    C      1.38997562      0.96170077     -0.21483919
    C      0.93209777      0.01503700     -1.13271623
    C      0.27705640      0.44360483     -2.29917387
    O     -0.16561921     -0.45942812     -3.22067233
    H      0.00119101     -1.36432297     -2.91653498
    H     -0.44186482      2.12520283     -3.44392578
    H      0.39601756      3.80684912     -1.80155355
    H      1.57159724      3.06026998      0.25402535
    H      1.88416083      0.63443746      0.69725936
    H      1.06391254     -1.05049304     -0.94402082
    C      7.08046310     -0.49117783     -4.60944440
    C      8.14390020     -1.36640722     -4.84122592
    C      7.29653145      0.74338866     -3.99227305
    C      8.58980291      1.10697986     -3.60616542
    C      9.66481726      0.24559331     -3.82347261
    C      9.43801982     -0.99218492     -4.44391170
    O     10.50197725     -1.83831652     -4.64140105
    H     10.27432559     -2.53408020     -5.29697025
    H      7.97816508     -2.32729190     -5.32447340
    H      6.07520657     -0.77485974     -4.91625737
    H      6.46303223      1.41917560     -3.81977208
    H      8.76740846      2.07094740     -3.13283743
    H     10.67176773      0.53371723     -3.53149387
    C     -2.22463091      6.36145576      4.76915446
    C     -3.37600569      7.08886773      5.07169737
    C     -1.22313746      6.18808570      5.72809706
    C     -1.37687547      6.74239577      7.00209181
    C     -2.52189903      7.47228563      7.32331782
    C     -3.52038216      7.64681765      6.35392478
    O     -4.63796955      8.37351452      6.67289592
    H     -5.25912924      8.39440629      5.91382252
    H     -4.15506973      7.23022689      4.32598434
    H     -2.10696108      5.92928032      3.77749984
    H     -0.32321591      5.62742820      5.47927234
    H     -0.60043223      6.60365349      7.75366175
    H     -2.64680694      7.90295960      8.31369354
    C     -0.63251331      9.26676221      3.46690927
    C      0.04178385      8.88499938      2.30719671
    C      0.05815583      9.85204516      4.53311893
    C      1.43573834     10.06671402      4.43107976
    C      2.12893186      9.69114857      3.27917686
    C      1.43103812      9.08643717      2.21720855
    O      2.07490037      8.68740104      1.09227579
    H      3.04252081      8.74224478      1.19871574
    H     -0.48808668      8.42172166      1.47912169
    H     -1.70626317      9.09689945      3.54415623
    H     -0.47115366     10.13840686      5.43921728
    H      1.97178823     10.53283730      5.25723819
    H      3.20207391      9.85545274      3.20479642
    C     -1.99576668     -0.30786388      0.09291814
    C     -2.61187643     -0.92577844     -0.99694352
    C     -1.33283637     -1.06603165      1.05951491
    C     -1.26343438     -2.45601735      0.92476733
    C     -1.87168245     -3.09042941     -0.15939839
    C     -2.55821645     -2.32389065     -1.11227724
    O     -3.18431546     -2.97189892     -2.15086291
    H     -3.43778485     -2.35531711     -2.87247705
    H     -3.11941361     -0.33292774     -1.75470614
    H     -2.02400099      0.77654098      0.18304470
    H     -0.85163795     -0.57285424      1.90197578
    H     -0.72625855     -3.05086121      1.66206243
    H     -1.80338748     -4.16977326     -0.27850487
    C      5.09717700      6.60590794      7.11905860
    C      4.81605374      7.92345627      7.48665964
    C      6.25714405      5.97364862      7.57386171
    C      7.14844943      6.66523669      8.39813306
    C      6.87483302      7.97667897      8.79304289
    C      5.70003579      8.59818158      8.34044498
    O      5.39613929      9.87480407      8.73583695
    H      6.00378388     10.16593352      9.44975677
    H      3.92124171      8.42412492      7.12509784
    H      4.40309625      6.06173272      6.48202987
    H      6.46742724      4.94676325      7.28559661
    H      8.05664817      6.17657793      8.74607086
    H      7.55816388      8.51086076      9.45074044
    C      3.33261880      0.97143528     -4.04142090
    C      3.52101387      0.11744778     -5.13378018
    C      3.72480765      2.31062035     -4.11201121
    C      4.31014935      2.80186889     -5.28490727
    C      4.50559853      1.96767216     -6.38497992
    C      4.11757014      0.61739232     -6.30874291
    O      4.32058756     -0.18243632     -7.38177080
    H      4.00879432     -1.09308617     -7.21065579
    H      3.22954268     -0.92971518     -5.07486453
    H      2.88126296      0.58396462     -3.12943201
    H      3.58034353      2.96755521     -3.25755908
    H      4.61863183      3.84385283     -5.33953862
    H      4.95323596      2.34412859     -7.30016099
    C     -0.21468306     12.04510200      7.63456107
    C      1.14146850     12.35773928      7.53939769
    C     -0.62193407     10.82833900      8.18968155
    C      0.33385259      9.91640751      8.64810256
    C      1.69524936     10.21065931      8.54974392
    C      2.09530819     11.43320888      7.98895147
    O      3.41988036     11.75299497      7.87938627
    H      3.99471301     11.01535779      8.17930594
    H      1.47018136     13.30108004      7.10911065
    H     -0.95845529     12.75281233      7.27445166
    H     -1.68105164     10.59306036      8.26572905
    H      0.02103466      8.97011668      9.08507238
    H      2.44153562      9.50125163      8.90318350
    C      7.68503308      7.29442787      0.16940517
    C      7.76945313      8.31482413     -0.77641105
    C      8.72077848      7.08690466      1.08795283
    C      9.84387126      7.92022246      1.06670099
    C      9.94081194      8.95226081      0.13081100
    C      8.90640038      9.13955103     -0.80105249
    O      8.99349042     10.12556585     -1.74840502
    H      9.86901992     10.57178134     -1.72313458
    H      6.97012159      8.46752993     -1.49699401
    H      6.81044055      6.64761553      0.18312080
    H      8.66190901      6.26923423      1.80306050
    H     10.65769028      7.75805977      1.77281689
    H     10.81461644      9.59956991      0.11291064
    C     -2.14222779      2.49012166      6.44539887
    C     -0.78302167      2.56489170      6.75572815
    C     -2.96709637      1.58525214      7.11755588
    C     -2.43916415      0.75335278      8.10746638
    C     -1.08383056      0.81987974      8.44182028
    C     -0.26945684      1.72977128      7.75565991
    O      1.08198035      1.82029324      8.04697635
    H      1.32769424      1.22547932      8.78043831
    H     -0.12520398      3.25722335      6.23406927
    H     -2.55417118      3.13837735      5.67541780
    H     -4.02450523      1.53165468      6.87246129
    H     -3.08438951      0.04472913      8.62384473
    H     -0.66924764      0.18724045      9.22294628
    C      8.42425725     -0.63871357     -0.28014902
    C      7.49016311      0.31338212      0.13319418
    C      8.87427166     -1.62029648      0.60662032
    C      8.38111825     -1.65707302      1.91519880
    C      7.45171979     -0.71124868      2.34692313
    C      7.01189037      0.27676716      1.45310250
    O      6.11501116      1.21046290      1.89635899
    H      5.85752652      1.82665974      1.17752477
    H      7.13416345      1.07387070     -0.55697351
    H      8.79938115     -0.60962826     -1.30317664
    H      9.61203212     -2.35193377      0.28035285
    H      8.72660837     -2.42446138      2.60426904
    H      7.06570939     -0.72926732      3.36305277
    S      4.33684425      6.51247929      2.79472270
    O      3.37780304      7.06605631      3.93505924
    O      4.62296611      7.63866056      1.92322159
    C      5.86765444      6.02224337      3.69820200
    O      3.77154996      5.28432809      2.18605041
    H      5.66804434      5.26442556      4.46217090
    H      6.33713730      6.87857631      4.18938940
    H      6.59747174      5.59612079      3.00197033
